! TOUCHSTONE file generated by CST MICROWAVE STUDIO
! Date and time: Sat Jan  3 18:41:09 2026
! Project name: PCB_LOG_PERIODIC.cst
! Parameters = {bowtie_linear_scaling_factor=0.85; bowtie_spacing=200; copper_thickness=0.035; dielectric_eps=4.6; dielectric_thickness=1.5; feed_line_length=205; feed_line_width=5; first_bowtie_length=60; first_bowtie_pos_offset=30; first_bowtie_start_offset=18; first_bowtie_width=5; first_bowtie_width_end=30; num_of_bowtie_peper_side=7; pcb_length=205; pcb_width_base=160; pcb_width_top=20}
! Header version: 2024
! Port assignment regex: !\s*Touchstone port\s*([0-9]+)\s*=\s*(CST MWS port|CST DES external port|CST DES block port)\s*(.+)\s* \(\"(.*)\"\)(\s*mode\s*([0-9]+))?.*
! Touchstone port assignment:
! Touchstone port 1 = CST MWS port 1 ("")
# GHz S MA R 50
0.05                   0.9987065       -87.23592
0.05595                0.9966081       -95.15894
0.0619                 0.9946074       -102.5251
0.06785                0.9931208       -109.3838
0.0738                 0.9924392       -115.7976
0.07975                0.9926531        -121.835
0.0857                 0.9936269       -127.5621
0.09165                0.9950341       -133.0363
0.0976                 0.9964394       -138.3005
0.10355                0.9974097       -143.3822
0.1095                 0.9976211       -148.2949
0.11545                0.9969395       -153.0434
0.1214                 0.9954545       -157.6293
0.12735                0.9934583        -162.058
0.1333                 0.9913762       -166.3439
0.13925                0.9896611       -170.5131
0.1452                 0.9886785       -174.6036
0.15115                0.9886105       -178.6615
0.1571                 0.9894033        177.2648
0.16305                0.9907771        173.1318
0.169                    0.99229        168.9059
0.17495                0.9934448        164.5666
0.1809                 0.9938067        160.1055
0.18685                0.9931063         155.523
0.1928                 0.9913018        150.8222
0.19875                0.9885922        146.0017
0.2047                   0.98537        141.0493
0.21065                0.9821308        135.9368
0.2166                 0.9793505        130.6176
0.22255                0.9773631        125.0285
0.2285                 0.9762677         119.094
0.23445                  0.97589        112.7347
0.2404                 0.9758084        105.8747
0.24635                0.9754436        98.44918
0.2523                 0.9741852        90.40922
0.25825                0.9715298        81.72403
0.2642                 0.9671994        72.38213
0.27015                0.9612192         62.3919
0.2761                  0.953939        51.78289
0.28205                0.9459926        40.60801
0.288                  0.9381981        28.94596
0.29395                0.9314137         16.9025
0.2999                 0.9263736        4.608785
0.30585                0.9235424       -7.784724
0.3118                 0.9230226       -20.11849
0.31775                0.9245422       -32.23637
0.3237                 0.9275277       -43.99736
0.32965                0.9312382       -55.28399
0.3356                 0.9349297       -66.00633
0.34155                0.9380034        -76.1026
0.3475                  0.940114       -85.53747
0.35345                0.9412149       -94.30044
0.3594                 0.9415375       -102.4043
0.36535                0.9415112       -109.8838
0.3713                 0.9416416       -116.7935
0.37725                0.9423743       -123.2044
0.3832                 0.9439753       -129.1966
0.38915                0.9464603       -134.8517
0.3951                 0.9495906       -140.2438
0.40105                0.9529343       -145.4318
0.407                  0.9559774       -150.4562
0.41295                0.9582521       -155.3389
0.4189                 0.9594492       -160.0878
0.42485                0.9594902       -164.7028
0.4308                 0.9585397       -169.1836
0.43675                0.9569595       -173.5369
0.4427                 0.9552112       -177.7814
0.44865                0.9537323        178.0508
0.4546                 0.9528168        173.9153
0.46055                0.9525319        169.7617
0.4665                 0.9526972        165.5406
0.47245                0.9529304        161.2103
0.4784                 0.9527469        156.7411
0.48435                0.9516842         152.116
0.4903                 0.9494162        147.3267
0.49625                0.9458262         142.368
0.5022                 0.9410201        137.2294
0.50815                0.9352767         131.888
0.5141                 0.9289455        126.3031
0.52005                0.9223182        120.4143
0.526                  0.9155137        114.1441
0.53195                 0.908409         107.404
0.5379                 0.9006449         100.103
0.54385                0.8917103        92.15591
0.5498                 0.8810887        83.49022
0.55575                0.8684286        74.05049
0.5617                 0.8537022        63.80182
0.56765                0.8373119        52.73339
0.5736                 0.8201144        40.86487
0.57955                0.8033435        28.25511
0.5855                 0.7884281        15.01231
0.59145                0.7767275         1.29987
0.5974                 0.7692401       -12.66739
0.60335                0.7663731       -26.64136
0.6093                 0.7678553       -40.36991
0.61525                0.7728316       -53.62798
0.6212                 0.7801014       -66.23965
0.62715                0.7884145       -78.08669
0.6331                 0.7967298       -89.10586
0.63905                0.8043781       -99.28072
0.645                  0.8111035       -108.6334
0.65095                0.8169966       -117.2179
0.6569                  0.822348       -125.1137
0.66285                0.8274677       -132.4195
0.6688                 0.8325209       -139.2435
0.67475                0.8374262       -145.6924
0.6807                  0.841842       -151.8599
0.68665                 0.845238       -157.8189
0.6926                 0.8470284        -163.618
0.69855                0.8467159       -169.2835
0.7045                 0.8440099       -174.8267
0.71045                0.8388807        179.7469
0.7164                  0.831537        174.4273
0.72235                0.8223292         169.191
0.7283                 0.8115995        163.9959
0.73425                 0.799517        158.7808
0.7402                 0.7859453         153.471
0.74615                0.7703804        147.9874
0.7521                 0.7519833        142.2575
0.75805                 0.729698        136.2244
0.764                  0.7024269        129.8514
0.76995                0.6692198        123.1218
0.7759                 0.6294382        116.0346
0.78185                0.5828725        108.5976
0.7878                 0.5297974        100.8167
0.79375                0.4709694        92.68289
0.7997                 0.4075771        84.15026
0.80565                0.3411611        75.09496
0.8116                 0.2735363        65.22307
0.81755                 0.206789        53.82715
0.8235                 0.1435915        39.01177
0.82945               0.08904592        14.77621
0.8354                0.05960723       -34.14875
0.84135               0.07704202       -86.15052
0.8473                 0.1156519       -111.6818
0.85325                 0.155699       -125.9085
0.8592                 0.1926445       -135.8636
0.86515                0.2254276        -143.793
0.8711                 0.2538372       -150.5799
0.87705                0.2778928       -156.6411
0.883                  0.2976532       -162.1967
0.88895                0.3131678       -167.3644
0.8949                 0.3244943       -172.1992
0.90085                0.3317483       -176.7133
0.9068                  0.335156        179.1095
0.91275                0.3350929        175.3029
0.9187                 0.3320903        171.9051
0.92465                0.3268054        168.9472
0.9306                 0.3199547        166.4421
0.93655                0.3122241        164.3766
0.9425                 0.3041774        162.7105
0.94845                 0.296189        161.3838
0.9544                 0.2884254        160.3318
0.96035                0.2808829        159.5018
0.9663                 0.2734692         158.867
0.97225                0.2660973        158.4298
0.9782                 0.2587612        158.2154
0.98415                0.2515678        158.2568
0.9901                 0.2447175        158.5776
0.99605                0.2384466        159.1791
1.002                  0.2329556        160.0366
1.00795                0.2283581        161.1085
1.0139                 0.2246763        162.3528
1.01985                 0.221889        163.7429
1.0258                 0.2200104        165.2718
1.03175                0.2191612        166.9383
1.0377                 0.2195876        168.7212
1.04365                 0.221606        170.5522
1.0496                 0.2254809        172.3067
1.05555                0.2312823        173.8224
1.0615                 0.2387921        174.9436
1.06745                0.2475066        175.5668
1.0734                 0.2567363        175.6667
1.07935                0.2657606        175.2936
1.0853                 0.2739816        174.5514
1.09125                0.2810362        173.5676
1.0972                 0.2868444        172.4637
1.10315                0.2915841        171.3312
1.1091                 0.2955973         170.214
1.11505                0.2992444        169.1036
1.121                  0.3027478        167.9481
1.12695                0.3060738        166.6773
1.1329                 0.3089009        165.2344
1.13885                0.3106913        163.6051
1.1448                 0.3108457        161.8343
1.15075                0.3088981        160.0277
1.1567                 0.3047033        158.3402
1.16265                0.2985745        156.9519
1.1686                 0.2913345          156.03
1.17455                0.2842379        155.6729
1.1805                 0.2787244        155.8448
1.18645                0.2760071        156.3326
1.1924                 0.2766085        156.7736
1.19835                0.2800697        156.7704
1.2043                 0.2850053          156.03
1.21025                0.2894683        154.4447
1.2162                 0.2914215        152.0884
1.22215                0.2891388        149.1714
1.2281                 0.2814786        145.9999
1.23405                0.2680554        142.9625
1.24                   0.2493567         140.547
1.24595                 0.226856        139.3741
1.2519                 0.2031471        140.2071
1.25785                0.1820218        143.7962
1.2638                 0.1680649        150.2967
1.26975                 0.164967        158.4068
1.2757                 0.1730424         165.667
1.28165                0.1889308        170.3323
1.2876                 0.2080204        172.2264
1.29355                0.2265068        172.0144
1.2995                 0.2419562        170.4771
1.30545                0.2531721        168.2578
1.3114                 0.2599432         165.837
1.31735                0.2628023         163.555
1.3233                 0.2627823        161.6268
1.32925                0.2611402         160.142
1.3352                 0.2590533        159.0655
1.34115                0.2573354        158.2584
1.3471                 0.2562606        157.5311
1.35305                0.2555632        156.7139
1.359                  0.2546151        155.7161
1.36495                0.2526967        154.5497
1.3709                 0.2492561        153.3185
1.37685                0.2440886        152.1867
1.3828                 0.2374046        151.3393
1.38875                0.2297916        150.9401
1.3947                 0.2220776        151.0874
1.40065                0.2151195        151.7784
1.4066                 0.2095651        152.8982
1.41255                0.2056718        154.2539
1.4185                  0.203269        155.6482
1.42445                0.2018896        156.9551
1.4304                 0.2010091        158.1575
1.43635                0.2002824        159.3315
1.4423                  0.199689        160.5944
1.44825                0.1995444        162.0371
1.4542                 0.2003795        163.6662
1.46015                0.2027201        165.3771
1.4661                 0.2068511        166.9791
1.47205                0.2126697        168.2656
1.478                  0.2196996        169.0939
1.48395                0.2272515        169.4276
1.4899                 0.2346456        169.3321
1.49585                0.2414083        168.9371
1.5018                 0.2473894        168.3888
1.50775                0.2527791        167.8056
1.5137                 0.2580227        167.2428
1.51965                0.2636501        166.6753
1.5256                 0.2700612        166.0036
1.53155                0.2773369        165.0869
1.5375                 0.2851454         163.792
1.54345                0.2927793        162.0363
1.5494                    0.2993        159.8103
1.55535                0.3037328        157.1769
1.5613                  0.305256        154.2575
1.56725                0.3033486        151.2141
1.5732                 0.2978841        148.2338
1.57915                0.2891677        145.5146
1.5851                 0.2779173        143.2498
1.59105                0.2651848        141.6049
1.597                   0.252211        140.6841
1.60295                0.2402136        140.4906
1.6089                 0.2301331        140.8996
1.61485                0.2224068        141.6724
1.6208                 0.2168764        142.5261
1.62675                0.2128908        143.2303
1.6327                 0.2095659        143.6776
1.63865                0.2060807        143.8977
1.6446                 0.2019004        144.0258
1.65055                0.1968832          144.25
1.6565                 0.1912727        144.7575
1.66245                   0.1856         145.684
1.6684                 0.1805174        147.0707
1.67435                0.1765996        148.8447
1.6803                   0.17417        150.8376
1.68625                0.1732197        152.8473
1.6922                  0.173458        154.7126
1.69815                0.1744654        156.3619
1.7041                 0.1758703        157.8142
1.71005                0.1774785         159.143
1.716                  0.1793151        160.4262
1.72195                0.1815787        161.7028
1.7279                 0.1845309        162.9492
1.73385                0.1883629        164.0837
1.7398                 0.1930912        164.9974
1.74575                0.1985233        165.5969
1.7517                 0.2043027        165.8369
1.75765                0.2100082        165.7323
1.7636                  0.215266        165.3484
1.76955                0.2198371         164.779
1.7755                 0.2236609        164.1209
1.78145                0.2268474        163.4518
1.7874                 0.2296222        162.8134
1.79335                0.2322403        162.2057
1.7993                 0.2348919        161.5924
1.80525                0.2376298        160.9175
1.8112                  0.240343         160.129
1.81715                 0.242787        159.2004
1.8231                 0.2446587        158.1427
1.82905                0.2456933        157.0059
1.835                  0.2457542        155.8696
1.84095                0.2448948        154.8256
1.8469                 0.2433762         153.957
1.85285                 0.241632        153.3138
1.8588                 0.2401807        152.8921
1.86475                 0.239498        152.6237
1.8707                 0.2398793        152.3837
1.87665                0.2413395         152.019
1.8826                 0.2435854        151.3895
1.88855                0.2460737        150.4027
1.8945                 0.2481277        149.0321
1.90045                0.2490727        147.3156
1.9064                 0.2483538        145.3425
1.91235                0.2456171        143.2366
1.9183                 0.2407518        141.1408
1.92425                0.2338966        139.2047
1.9302                  0.225414        137.5729
1.93615                 0.215841        136.3726
1.9421                 0.2058152        135.6988
1.94805                0.1959857        135.5978
1.954                  0.1869169        136.0546
1.95995                0.1790036        136.9915
1.9659                 0.1724215        138.2845
1.97185                0.1671334        139.7967
1.9778                 0.1629492        141.4143
1.98375                0.1596212         143.071
1.9897                 0.1569357        144.7505
1.99565                0.1547734        146.4698
2.0016                  0.153125        148.2531
2.00755                 0.152066        150.1067
2.0135                 0.1517033        152.0046
2.01945                0.1521167        153.8883
2.0254                 0.1533149        155.6817
2.03135                0.1552219        157.3122
2.0373                 0.1576937        158.7307
2.04325                0.1605581        159.9196
2.0492                 0.1636565        160.8906
2.05515                0.1668761        161.6728
2.0611                 0.1701622        162.2998
2.06705                0.1735096        162.7973
2.073                  0.1769398         163.177
2.07895                0.1804709        163.4367
2.0849                 0.1840928        163.5652
2.09085                0.1877534        163.5507
2.0968                 0.1913626         163.389
2.10275                0.1948096        163.0883
2.1087                 0.1979894        162.6701
2.11465                0.2008276        162.1658
2.1206                 0.2032985        161.6099
2.12655                0.2054277        161.0327
2.1325                 0.2072804        160.4538
2.13845                0.2089365        159.8785
2.1444                 0.2104594        159.2984
2.15035                0.2118693        158.6967
2.1563                 0.2131293         158.057
2.16225                0.2141517        157.3727
2.1682                 0.2148239        156.6543
2.17415                0.2150509         155.933
2.1801                 0.2148002         155.257
2.18605                0.2141408        154.6833
2.192                  0.2132614        154.2629
2.19795                0.2124588        154.0237
2.2039                 0.2120911        153.9528
2.20985                0.2124985         153.987
2.2158                 0.2139082        154.0159
2.22175                0.2163526        153.9029
2.2277                 0.2196309        153.5164
2.23365                0.2233282        152.7617
2.2396                 0.2268878        151.5995
2.24555                0.2297085         150.049
2.2515                  0.231243        148.1797
2.25745                0.2310786         146.097
2.2634                 0.2289906         143.929
2.26935                0.2249678        141.8137
2.2753                 0.2192108        139.8884
2.28125                0.2121038         138.278
2.2872                 0.2041621        137.0816
2.29315                 0.195957        136.3577
2.2991                 0.1880266        136.1115
2.30505                0.1807862        136.2904
2.311                  0.1744628        136.7954
2.31695                0.1690766        137.5082
2.3229                 0.1644781        138.3268
2.32885                0.1604311        139.1931
2.3348                 0.1567097        140.1036
2.34075                0.1531773         141.099
2.3467                 0.1498259        142.2402
2.35265                0.1467698        143.5782
2.3586                  0.144198        145.1275
2.36455                0.1423029        146.8519
2.3705                 0.1412092        148.6687
2.37645                0.1409276        150.4726
2.3824                 0.1413533        152.1691
2.38835                0.1423056        153.7008
2.3943                 0.1435908        155.0568
2.40025                0.1450613        156.2641
2.4062                 0.1466508         157.367
2.41215                0.1483771        158.4043
2.4181                 0.1503152        159.3926
2.42405                0.1525517        160.3196
2.43                   0.1551372        161.1501
2.43595                0.1580554        161.8405
2.4419                 0.1612179        162.3566
2.44785                 0.164486        162.6864
2.4538                 0.1677102        162.8445
2.45975                0.1707713        162.8668
2.4657                 0.1736096        162.7995
2.47165                0.1762349        162.6859
2.4776                 0.1787132        162.5555
2.48355                0.1811361        162.4174
2.4895                 0.1835827        162.2616
2.49545                0.1860872        162.0663
2.5014                 0.1886238        161.8093
2.50735                 0.191116        161.4802
2.5133                 0.1934666         161.087
2.51925                0.1956004        160.6572
2.5252                 0.1975043        160.2303
2.53115                0.1992528        159.8464
2.5371                 0.2010074        159.5309
2.54305                0.2029877        159.2814
2.549                   0.205416         159.061
2.55495                0.2084508        158.8004
2.5609                 0.2121277        158.4125
2.56685                0.2163283         157.813
2.5728                 0.2207898         156.941
2.57875                0.2251493        155.7721
2.5847                 0.2290098        154.3216
2.59065                0.2320095        152.6389
2.5966                  0.233879         150.797
2.60255                0.2344776         148.881
2.6085                 0.2338059        146.9761
2.61445                0.2319949        145.1584
2.6204                 0.2292747        143.4853
2.62635                 0.225928        141.9905
2.6323                 0.2222382        140.6807
2.63825                0.2184397        139.5385
2.6442                 0.2146843        138.5289
2.65015                0.2110295        137.6108
2.6561                 0.2074514        136.7482
2.66205                0.2038761        135.9191
2.668                  0.2002186        135.1192
2.67395                0.1964178        134.3598
2.6799                 0.1924573        133.6617
2.68585                0.1883683        133.0466
2.6918                 0.1842163        132.5297
2.69775                0.1800777        132.1147
2.7037                 0.1760142        131.7935
2.70965                0.1720538        131.5498
2.7156                 0.1681853        131.3668
2.72155                0.1643668        131.2343
2.7275                 0.1605455        131.1547
2.73345                0.1566811        131.1443
2.7394                 0.1527646          131.23
2.74535                0.1488277        131.4424
2.7513                 0.1449374        131.8076
2.75725                0.1411811        132.3398
2.7632                 0.1376439        133.0372
2.76915                0.1343879        133.8831
2.7751                 0.1314398        134.8529
2.78105                0.1287921        135.9232
2.787                   0.126417        137.0802
2.79295                0.1242884        138.3236
2.7989                 0.1224023        139.6639
2.80485                0.1207896        141.1141
2.8108                 0.1195142        142.6775
2.81675                0.1186574        144.3381
2.8227                 0.1182938        146.0554
2.82865                0.1184653        147.7698
2.8346                 0.1191651        149.4137
2.84055                0.1203366        150.9271
2.8465                 0.1218868        152.2699
2.85245                0.1237097        153.4263
2.8584                 0.1257094        154.4018
2.86435                0.1278155         155.215
2.8703                 0.1299884        155.8873
2.87625                0.1322123        156.4356
2.8822                  0.134482        156.8685
2.88815                0.1367886        157.1872
2.8941                 0.1391085        157.3899
2.90005                0.1414014         157.477
2.906                  0.1436157        157.4558
2.91195                0.1457013         157.342
2.9179                 0.1476221        157.1583
2.92385                0.1493672        156.9302
2.9298                 0.1509531        156.6808
2.93575                  0.15242        156.4257
2.9417                  0.153819          156.17
2.94765                0.1551973        155.9079
2.9536                 0.1565837        155.6258
2.95955                0.1579801        155.3073
2.9655                 0.1593617        154.9386
2.97145                0.1606847        154.5136
2.9774                 0.1619003        154.0352
2.98335                 0.162969        153.5146
2.9893                 0.1638718        152.9675
2.99525                0.1646139        152.4098
3.0012                  0.165221        151.8529
3.00715                0.1657296        151.3007
3.0131                 0.1661728        150.7491
3.01905                0.1665691        150.1883
3.025                  0.1669142        149.6065
3.03095                0.1671826        148.9942
3.0369                  0.167334        148.3486
3.04285                 0.167326        147.6743
3.0488                 0.1671269        146.9833
3.05475                0.1667252        146.2914
3.0607                 0.1661323        145.6146
3.06665                0.1653791        144.9648
3.0726                 0.1645063        144.3472
3.07855                0.1635515        143.7595
3.0845                 0.1625381        143.1935
3.09045                0.1614687         142.639
3.0964                 0.1603257        142.0881
3.10235                0.1590784        141.5388
3.1083                 0.1576949         140.997
3.11425                0.1561542         140.476
3.1202                 0.1544557        139.9937
3.12615                0.1526218        139.5686
3.1321                 0.1506949        139.2151
3.13805                0.1487276        138.9407
3.144                  0.1467711        138.7445
3.14995                0.1448642        138.6189
3.1559                 0.1430278        138.5526
3.16185                0.1412651        138.5354
3.1678                 0.1395693        138.5616
3.17375                0.1379336         138.631
3.1797                  0.136362        138.7482
3.18565                0.1348738        138.9175
3.1916                 0.1335028        139.1388
3.19755                0.1322879        139.4026
3.2035                 0.1312601        139.6888
3.20945                 0.130428        139.9686
3.2154                 0.1297695        140.2106
3.22135                0.1292313        140.3882
3.2273                 0.1287371        140.4866
3.23325                0.1282036        140.5066
3.2392                 0.1275585        140.4651
3.24515                0.1267543        140.3904
3.2511                 0.1257779        140.3163
3.25705                0.1246489        140.2744
3.263                  0.1234119        140.2881
3.26895                0.1221219        140.3685
3.2749                  0.120829        140.5144
3.28085                0.1195659        140.7157
3.2868                 0.1183429         140.959
3.29275                0.1171506        141.2347
3.2987                 0.1159699        141.5415
3.30465                0.1147849        141.8875
3.3106                  0.113595        142.2882
3.31655                0.1124202        142.7605
3.3225                 0.1113003        143.3161
3.32845                0.1102855        143.9561
3.3344                 0.1094229        144.6681
3.34035                0.1087437        145.4289
3.3463                 0.1082549          146.21
3.35225                0.1079385        146.9856
3.3582                 0.1077597        147.7395
3.36415                0.1076805        148.4681
3.3701                 0.1076725        149.1792
3.37605                0.1077276        149.8862
3.382                  0.1078596        150.6016
3.38795                0.1080985        151.3292
3.3939                 0.1084792        152.0615
3.39985                0.1090272        152.7794
3.4058                 0.1097483        153.4578
3.41175                0.1106241        154.0724
3.4177                 0.1116166        154.6069
3.42365                0.1126784        155.0574
3.4296                 0.1137668        155.4317
3.43555                0.1148546        155.7457
3.4415                 0.1159364        156.0175
3.44745                0.1170271        156.2606
3.4534                 0.1181535        156.4798
3.45935                0.1193424        156.6694
3.4653                 0.1206086        156.8161
3.47125                0.1219473        156.9033
3.4772                  0.123333        156.9178
3.48315                0.1247253         156.854
3.4891                 0.1260805        156.7163
3.49505                0.1273625        156.5178
3.501                  0.1285526        156.2765
3.50695                0.1296531        156.0103
3.5129                  0.130684         155.732
3.51885                0.1316746        155.4465
3.5248                 0.1326524          155.15
3.53075                0.1336324        154.8327
3.5367                 0.1346116        154.4828
3.54265                0.1355686        154.0914
3.5486                 0.1364707        153.6563
3.55455                0.1372842        153.1836
3.5605                 0.1379856        152.6863
3.56645                0.1385697        152.1809
3.5724                 0.1390523        151.6829
3.57835                0.1394667        151.2026
3.5843                 0.1398544        150.7415