! TOUCHSTONE file generated by CST MICROWAVE STUDIO
! Date and time: Sat Jan  3 18:33:33 2026
! Project name: PCB_LOG_PERIODIC.cst
! Parameters = {bowtie_linear_scaling_factor=0.85; bowtie_spacing=200; cnd_off1=0.25; cnd_off2=0.5; cnd_off3=1.5; copper_thickness=0.035; dielectric_eps=4.6; dielectric_thickness=1.5; feed_cut_len=1.5; feed_line_length=205; feed_line_width=4; first_bowtie_length=60; first_bowtie_pos_offset=30; first_bowtie_start_offset=18; first_bowtie_width=5; first_bowtie_width_end=30; num_of_bowtie_peper_side=7; pcb_length=205; pcb_width_base=160; pcb_width_top=20}
! Header version: 2024
! Port assignment regex: !\s*Touchstone port\s*([0-9]+)\s*=\s*(CST MWS port|CST DES external port|CST DES block port)\s*(.+)\s* \(\"(.*)\"\)(\s*mode\s*([0-9]+))?.*
! Touchstone port assignment:
! Touchstone port 1 = CST MWS port 1 ("")
# GHz S MA R 50
0.05                    1.000808       -109.1859
0.05995                 1.001098       -129.4621
0.0699                 0.9992145       -149.0337
0.07985                0.9948546       -167.8399
0.0898                 0.9881183        174.1619
0.09975                0.9795611        156.9928
0.1097                 0.9701767        140.6467
0.11965                 0.961295        125.0825
0.1296                 0.9543915        110.2161
0.13955                 0.950822        95.91633
0.1495                 0.9515291        82.00922
0.15945                0.9567941        68.29192
0.1694                 0.9661047        54.55444
0.17935                0.9781843        40.60174
0.1893                 0.9911686        26.26888
0.19925                 1.002878        11.42546
0.2092                  1.011121       -4.029161
0.21915                 1.013978       -20.17605
0.2291                  1.010056       -37.08788
0.23905                0.9986936       -54.83797
0.249                  0.9801322       -73.50497
0.25895                0.9556396       -93.17067
0.2689                 0.9275512       -113.9072
0.27885                0.8991737       -135.7498
0.2888                  0.874454       -158.6539
0.29875                0.8573334        177.5518
0.3087                  0.850827        153.1872
0.31865                0.8561054         128.684
0.3286                 0.8720257          104.49
0.33855                0.8953912        80.96649
0.3485                 0.9217942        58.33723
0.35845                0.9466198         36.7007
0.3684                 0.9658756        16.07583
0.37835                0.9767337        -3.55185
0.3883                 0.9778198       -22.19944
0.39825                0.9693181       -39.87338
0.4082                  0.952927       -56.57239
0.41815                0.9316624       -72.30556
0.4281                 0.9094678       -87.12481
0.43805                0.8905865       -101.1649
0.448                  0.8787159       -114.6732
0.45795                0.8761144       -128.0012
0.4679                 0.8829948       -141.5457
0.47785                0.8974942       -155.6625
0.4878                   0.91623       -170.6012
0.49775                0.9351427        173.5108
0.5077                 0.9502867        156.6418
0.51765                0.9583833        138.8151
0.5276                 0.9571322        120.0729
0.53755                0.9453489        100.4509
0.5475                  0.923003        79.96397
0.55745                0.8912045        58.60011
0.5674                 0.8521548        36.32225
0.57735                 0.809052        13.08187
0.5873                 0.7659011       -11.14964
0.59725                0.7271446       -36.32671
0.6072                 0.6970253       -62.26109
0.61715                 0.678706        -88.5774
0.6271                 0.6734237       -114.7494
0.63705                0.6801562       -140.2304
0.647                  0.6960654       -164.6033
0.65695                0.7174484        172.3459
0.6669                 0.7406599        150.6472
0.67685                0.7626631        130.2097
0.6868                 0.7811872        110.8798
0.69675                0.7946224        92.47932
0.7067                 0.8017943        74.82569
0.71665                0.8017288        57.74259
0.7266                 0.7934791        41.06693
0.73655                0.7760551        24.65415
0.7465                 0.7484633        8.381866
0.75645                0.7098376       -7.848675
0.7664                 0.6596216       -24.11408
0.77635                 0.597754       -40.47358
0.7863                  0.524818       -56.97778
0.79625                0.4421247       -73.68521
0.8062                 0.3517183       -90.69858
0.81615                0.2563112       -108.2747
0.8261                 0.1592096       -127.3098
0.83605               0.06486368       -153.8571
0.846                 0.03461093        59.72427
0.85595                0.1134478        19.96042
0.8659                 0.1846864       0.1091331
0.87585                0.2431707       -17.22739
0.8858                 0.2873229        -33.5369
0.89575                0.3166695       -49.11309
0.9057                 0.3317156       -63.97359
0.91565                0.3338812       -78.02558
0.9256                 0.3253937       -91.11154
0.93555                0.3091254       -103.0337
0.9455                 0.2883599       -113.5891
0.95545                0.2664612       -122.6387
0.9654                   0.24641       -130.2121
0.97535                0.2302394       -136.6022
0.9853                 0.2185823       -142.3372
0.99525                0.2106752       -147.9742
1.0052                 0.2049455       -153.8421
1.01515                0.1998665       -159.9305
1.0251                 0.1946371       -165.9581
1.03505                0.1894932        -171.539
1.045                  0.1856549        -176.388
1.05495                0.1849102        179.4583
1.0649                 0.1888501        175.5229
1.07485                0.1980423        171.0497
1.0848                 0.2116826         165.395
1.09475                0.2279371         158.303
1.1047                 0.2446007        149.8873
1.11465                0.2596363         140.466
1.1246                  0.271477         130.422
1.13455                0.2791631         120.134
1.1445                 0.2823955        109.9514
1.15445                0.2815377        100.1859
1.1644                 0.2775647        91.09798
1.17435                 0.271933        82.86569
1.1843                 0.2663331        75.53813
1.19425                0.2623201        68.99309
1.2042                  0.260891        62.94425
1.21415                0.2621889        57.02766
1.2241                 0.2655091        50.93653
1.23405                0.2696195        44.52161
1.244                  0.2732236        37.81013
1.25395                0.2753697        30.96001
1.2639                 0.2757019        24.19138
1.27385                0.2745355        17.71835
1.2838                 0.2727605        11.68446
1.29375                0.2715797        6.105365
1.3037                  0.272112       0.8389248
1.31365                0.2749714       -4.386371
1.3236                 0.2799977       -9.879042
1.33355                0.2862757       -15.87349
1.3435                 0.2924184       -22.46234
1.35345                0.2969576       -29.59368
1.3634                 0.2986888       -37.10811
1.37335                0.2968988       -44.78266
1.3833                 0.2914735       -52.36559
1.39325                0.2829079         -59.603
1.4032                 0.2722307       -66.26626
1.41315                0.2608495       -72.18974
1.4231                 0.2503107       -77.31972
1.43305                0.2419908       -81.75823
1.443                  0.2367841       -85.76445
1.45295                0.2349181       -89.68594
1.4629                 0.2360021       -93.84372
1.47285                0.2392897       -98.44182
1.4828                  0.244005       -103.5494
1.49275                0.2495776       -109.1438
1.5027                 0.2557218       -115.1711
1.51265                0.2623797       -121.5942
1.5226                 0.2695825       -128.4133
1.53255                0.2772997       -135.6613
1.5425                 0.2853277       -143.3821
1.55245                0.2932548       -151.6046
1.5624                 0.3004997       -160.3235
1.57235                0.3064018       -169.4916
1.5823                 0.3103305       -179.0217
1.59225                0.3117844        171.2049
1.6022                 0.3104671        161.3296
1.61215                0.3063324        151.5072
1.6221                 0.2995996        141.8983
1.63205                0.2907404        132.6601
1.642                  0.2804363         123.935
1.65195                 0.269508        115.8359
1.6619                 0.2588161        108.4283
1.67185                0.2491455        101.7158
1.6818                 0.2410918         95.6361
1.69175                0.2349896        90.07669
1.7017                 0.2309141        84.90724
1.71165                0.2287662        80.01477
1.7216                 0.2284072        75.32241
1.73155                0.2297861        70.78145
1.7415                 0.2330006        66.34303
1.75145                0.2382609        61.92662
1.7614                 0.2457683         57.4058
1.77135                0.2555563        52.62313
1.7813                 0.2673673        47.42818
1.79125                0.2806187        41.71834
1.8012                 0.2944693        35.46226
1.81115                 0.307952        28.69982
1.8211                 0.3201291        21.52616
1.83105                0.3302311        14.07014
1.841                  0.3377616        6.474534
1.85095                0.3425567       -1.120548
1.8609                 0.3447951       -8.591875
1.87085                0.3449554        -15.8466
1.8808                 0.3437195       -22.83494
1.89075                0.3418314       -29.55947
1.9007                 0.3399317       -36.07592
1.91065                0.3384093       -42.48111
1.9206                 0.3373138       -48.88797
1.93055                0.3363608       -55.39473
1.9405                 0.3350296       -62.05889
1.95045                0.3327185       -68.88392
1.9604                 0.3289103       -75.81978
1.97035                0.3233101       -82.77356
1.9803                 0.3159295       -89.62566
1.99025                0.3071117       -96.24937
2.0002                 0.2974961       -102.5334
2.01015                0.2879231       -108.4072
2.0201                   0.27929       -113.8659
2.03005                0.2723759       -118.9846
2.04                   0.2676803       -123.9114
2.04995                0.2653303       -128.8329
2.0599                 0.2650965       -133.9237
2.06985                0.2665129       -139.3035
2.0798                  0.269046       -145.0206
2.08975                0.2722478       -151.0616
2.0997                 0.2758484       -157.3782
2.10965                0.2797753       -163.9153
2.1196                 0.2841098       -170.6344
2.12955                0.2890015        -177.524
2.1395                   0.29457        175.4001
2.14945                0.3008212        168.1066
2.1594                 0.3076027        160.5651
2.16935                0.3146084        152.7631
2.1793                  0.321426        144.7162
2.18925                0.3276145        136.4713
2.1992                 0.3327879         128.102
2.20915                0.3366906           119.7
2.2191                  0.339251        111.3642
2.22905                 0.340605        103.1875
2.239                  0.3410826        95.24371
2.24895                 0.341155        87.57533
2.2589                 0.3413446        80.18393
2.26885                0.3421101        73.02805
2.2788                 0.3437327        66.03138
2.28875                0.3462358        59.10137
2.2987                 0.3493667        52.15312
2.30865                0.3526477        45.13089
2.3186                 0.3554819        38.02043
2.32855                0.3572825        30.85025
2.3385                 0.3575948        23.68418
2.34845                 0.356187        16.60896
2.3584                 0.3530977        9.719484
2.36835                0.3486343         3.10325
2.3783                 0.3433238       -3.175214
2.38825                0.3378186       -9.088392
2.3982                 0.3327736       -14.65489
2.40815                0.3287189       -19.93911
2.4181                 0.3259598       -25.03879
2.42805                0.3245382        -30.0624
2.438                  0.3242652       -35.10445
2.44795                0.3248117       -40.22783
2.4579                 0.3258209       -45.45891
2.46785                0.3270045       -50.79439
2.4778                 0.3281983         -56.215
2.48775                 0.329369        -61.7003
2.4977                 0.3305796       -67.23993
2.50765                0.3319329       -72.83907
2.5176                 0.3335121        -78.5172
2.52755                0.3353395       -84.30187
2.5375                 0.3373637       -90.22028
2.54745                0.3394765       -96.29177
2.5574                  0.341548       -102.5243
2.56735                0.3434676       -108.9147
2.5773                 0.3451729       -115.4532
2.58725                0.3466598       -122.1291
2.5972                  0.347971       -128.9357
2.60715                0.3491671       -135.8737
2.6171                 0.3502933       -142.9509
2.62705                0.3513491       -150.1785
2.637                  0.3522744       -157.5663
2.64695                0.3529543       -165.1165
2.6569                 0.3532426       -172.8192
2.66685                0.3529953        179.3489
2.6768                 0.3521065        171.4243
2.68675                0.3505382        163.4525
2.6967                 0.3483352        155.4835
2.70665                0.3456247        147.5654
2.7166                 0.3425986        139.7387
2.72655                0.3394817        132.0316
2.7365                 0.3364933        124.4582
2.74645                0.3338093        117.0186
2.7564                 0.3315339        109.7035
2.76635                0.3296887        102.4997
2.7763                 0.3282221        95.39718
2.78625                 0.327036        88.39408
2.7962                 0.3260235        81.49897
2.80615                0.3251067        74.72952
2.8161                 0.3242647        68.10796
2.82605                0.3235449        61.65491
2.836                  0.3230539         55.3828
2.84595                0.3229322        49.29113
2.8559                 0.3233172        43.36477
2.86585                 0.324307        37.57616
2.8758                 0.3259361         31.8909
2.88575                0.3281704        26.27485
2.8957                 0.3309216        20.70034
2.90565                0.3340779        15.14948
2.9156                 0.3375373        9.613674
2.92555                0.3412329        4.089938
2.9355                  0.345143       -1.424349
2.94545                 0.349281       -6.936275
2.9554                 0.3536705       -12.46006
2.96535                0.3583136       -18.01665
2.9753                 0.3631646       -23.63024
2.98525                0.3681179       -29.32323
2.9952                 0.3730157       -35.11102
3.00515                0.3776726       -40.99875
3.0151                 0.3819126       -46.98064
3.02505                0.3856038       -53.04226
3.035                   0.388685       -59.16482
3.04495                0.3911758       -65.33047
3.0549                 0.3931664       -71.52742
3.06485                0.3947913       -77.75346
3.0748                 0.3961926       -84.01759
3.08475                0.3974818       -90.33844
3.0947                 0.3987104       -96.74057
3.10465                0.3998558       -103.2494
3.1146                 0.4008271       -109.8859
3.12455                0.4014859       -116.6621
3.1345                 0.4016781       -123.5793
3.14445                0.4012677        -130.628
3.1544                 0.4001635       -137.7899
3.16435                0.3983378       -145.0407
3.1743                 0.3958307       -152.3534
3.18425                0.3927458       -159.7016
3.1942                  0.389235       -167.0622
3.20415                0.3854807       -174.4163
3.2141                 0.3816757        178.2488
3.22405                0.3780054        170.9406
3.234                  0.3746339        163.6617
3.24395                0.3716948        156.4108
3.2539                 0.3692862         149.184
3.26385                0.3674691        141.9764
3.2738                 0.3662683        134.7829
3.28375                0.3656752        127.5996
3.2937                  0.365651        120.4246
3.30365                0.3661319        113.2588
3.3136                 0.3670364        106.1065
3.32355                0.3682734        98.97568
3.3335                 0.3697521        91.87745
3.34345                0.3713916        84.82555
3.3534                 0.3731298        77.83495
3.36335                0.3749284        70.92013
3.3733                 0.3767733        64.09347
3.38325                0.3786717        57.36358
3.3932                 0.3806431        50.73446
3.40315                0.3827092        44.20517
3.4131                 0.3848835        37.77061
3.42305                0.3871637         31.4228
3.433                  0.3895289        25.15258
3.44295                0.3919432        18.95123
3.4529                  0.394362        12.81154
3.46285                0.3967429        6.728036
3.4728                 0.3990531       0.6965337
3.48275                0.4012748       -5.286965
3.4927                  0.403405       -11.22747
3.50265                  0.40545       -17.13196
3.5126                 0.4074171       -23.00975
3.52255                0.4093056       -28.87202
3.5325                  0.411101       -34.73093
3.54245                0.4127725       -40.59838
3.5524                 0.4142765        -46.4848
3.56235                0.4155633       -52.39854
3.5723                 0.4165846       -58.34576
3.58225                0.4173003       -64.33097
3.5922                 0.4176808       -70.35759
3.60215                0.4177061       -76.42895
3.6121                 0.4173623       -82.54809
3.62205                0.4166377       -88.71791
3.632                  0.4155215       -94.94024
3.64195                0.4140063       -101.2149
3.6519                 0.4120965       -107.5391
3.66185                 0.409818       -113.9076
3.6718                 0.4072296       -120.3131
3.68175                0.4044291       -126.7486
3.6917                 0.4015525       -133.2094
3.70165                0.3987642       -139.6958
3.7116                 0.3962384        -146.215
3.72155                 0.394134       -152.7821
3.7315                 0.3925695       -159.4183
3.74145                0.3916037       -166.1487
3.7514                 0.3912262       -172.9973
3.76135                0.3913611       -179.9829
3.7713                 0.3918841        172.8851
3.78125                0.3926467        165.6085
3.7912                 0.3935029        158.2005
3.80115                0.3943336         150.684
3.8111                 0.3950623         143.088
3.82105                0.3956619        135.4447
3.831                  0.3961508        127.7855
3.84095                0.3965805         120.138
3.8509                 0.3970191        112.5244
3.86085                0.3975319        104.9608
3.8708                 0.3981655        97.45782
3.88075                0.3989376        90.02237
3.8907                 0.3998351        82.65942
3.90065                0.4008189        75.37399
3.9106                 0.4018355        68.17226
3.92055                0.4028309        61.06182
3.9305                 0.4037629        54.05096
3.94045                 0.404609        47.14725
3.9504                  0.405367        40.35599
3.96035                0.4060504        33.67883
3.9703                 0.4066769         27.1132
3.98025                0.4072574        20.65261
3.9902                 0.4077861        14.28787
4.00015                0.4082367        8.008854
4.0101                 0.4085643        1.806321
4.02005                 0.408715       -4.326752
4.03                    0.408637       -10.39467
4.03995                0.4082923       -16.39944
4.0499                 0.4076645       -22.34202
4.05985                0.4067603       -28.22378
4.0698                 0.4056045       -34.04794
4.07975                0.4042303       -39.82038
4.0897                 0.4026691       -45.54957
4.09965                0.4009407       -51.24578
4.1096                 0.3990503       -56.91974
4.11955                0.3969905       -62.58115
4.1295                 0.3947485       -68.23778
4.13945                0.3923166       -73.89513
4.1494                    0.3897       -79.55711
4.15935                0.3869226       -85.22716
4.1693                 0.3840252       -90.90975
4.17925                0.3810603       -96.61156
4.1892                 0.3780817        -102.342
4.19915                 0.375135       -108.1132
4.2091                 0.3722508       -113.9384
4.21905                0.3694422       -119.8311
4.229                  0.3667074       -125.8035
4.23895                0.3640367       -131.8651
4.2489                 0.3614204       -138.0224
4.25885                0.3588548       -144.2795
4.2688                 0.3563463       -150.6384
4.27875                0.3539099       -157.0997
4.2887                  0.351566        -163.663
4.29865                0.3493356       -170.3272
4.3086                 0.3472364        -177.089
4.31855                0.3452818         176.057
4.3285                 0.3434838          169.12
4.33845                0.3418577        162.1128
4.3484                 0.3404286         155.052
4.35835                0.3392373        147.9562
4.3683                 0.3383411        140.8449
4.37825                0.3378117        133.7358
4.3882                 0.3377272        126.6432
4.39815                0.3381599        119.5767
4.4081                 0.3391634         112.541
4.41805                0.3407602        105.5367
4.428                   0.342935        98.56284
4.43795                0.3456346        91.61875
4.4479                 0.3487753        84.70676
4.45785                0.3522566        77.83322
4.4678                 0.3559791        71.00868
4.47775                 0.359861        64.24639
4.4877                 0.3638502         57.5602
4.49765                0.3679301         50.9616
4.5076                 0.3721146         44.4572
4.51755                0.3764369         38.0469
4.5275                 0.3809306        31.72346
4.53745                0.3856119        25.47346
4.5474                 0.3904633        19.27959
4.55735                0.3954262        13.12374
4.5673                 0.4004025         6.98993
4.57725                0.4052654         0.86662
4.5872                 0.4098768       -5.252239
4.59715                 0.414105       -11.36745
4.6071                 0.4178415       -17.47583
4.61705                  0.42101       -23.57215
4.627                  0.4235696       -29.65103
4.63695                0.4255106        -35.7086
4.6469                 0.4268455       -41.74341
4.65685                0.4275988       -47.75661
4.6668                 0.4277982       -53.75163
4.67675                0.4274692       -59.73324
4.6867                 0.4266339        -65.7068
4.69665                0.4253134       -71.67756
4.7066                 0.4235316       -77.65046
4.71655                0.4213184       -83.63027
4.7265                 0.4187114       -89.62197
4.73645                0.4157545        -95.6313
4.7464                 0.4124938        -101.665
4.75635                0.4089736       -107.7306
4.7663                  0.405233       -113.8362
4.77625                0.4013045       -119.9895
4.7862                 0.3972161       -126.1971
4.79615                0.3929953       -132.4641
4.8061                 0.3886754       -138.7934
4.81605                 0.384299       -145.1867
4.826                  0.3799214       -151.6442
4.83595                0.3756088       -158.1659
4.8459                 0.3714353        -164.752
4.85585                0.3674768       -171.4032
4.8658                 0.3638042       -178.1204
4.87575                0.3604789        175.0957
4.8857                 0.3575503        168.2456
4.89565                0.3550553        161.3322
4.9056                 0.3530219        154.3607
4.91555                0.3514723        147.3396
4.9255                 0.3504268        140.2796
4.93545                0.3499057        133.1932
4.9454                 0.3499287        126.0936
4.95535                0.3505123        118.9934
4.9653                 0.3516653        111.9041
4.97525                0.3533841        104.8358
4.9852                 0.3556492         97.7974
4.99515                 0.358424        90.79698
5.0051                 0.3616569        83.84249
5.01505                0.3652862         76.9422
5.025                  0.3692463        70.10474
5.03495                0.3734756        63.33865
5.0449                 0.3779216        56.65167
5.05485                0.3825441        50.04982
5.0648                 0.3873143        43.53647
5.07475                0.3922116        37.11184
5.0847                 0.3972173        30.77301
5.09465                0.4023086        24.51427
5.1046                 0.4074541        18.32818
5.11455                0.4126121        12.20656
5.1245                 0.4177325        6.141475
5.13445                0.4227613       0.1259024
5.1444                 0.4276468       -5.846162
5.15435                0.4323446       -11.77999
5.1643                 0.4368206       -17.68071
5.17425                0.4410505       -23.55397
5.1842                 0.4450173       -29.40642
5.19415                0.4487051       -35.24583
5.2041                 0.4520951       -41.08079
5.21405                0.4551613       -46.92013
5.224                  0.4578712       -52.77223
5.23395                0.4601875        -58.6444
5.2439                 0.4620743       -64.54254
5.25385                0.4635026       -70.47122
5.2638                 0.4644555       -76.43412
5.27375                0.4649297       -82.43459
5.2837                 0.4649358       -88.47631
5.29365                0.4644939       -94.56368
5.3036                 0.4636294       -100.7019
5.31355                0.4623686       -106.8968
5.3235                 0.4607361       -113.1539
5.33345                0.4587554       -119.4784
5.3434                 0.4564525       -125.8739
5.35335                0.4538606       -132.3427
5.3633                 0.4510256       -138.8852
5.37325                0.4480102        -145.501
5.3832                  0.444894       -152.1891
5.39315                0.4417717       -158.9489
5.4031                 0.4387471       -165.7803
5.41305                0.4359259       -172.6842
5.423                   0.433408       -179.6622
5.43295                0.4312809         173.284
5.4429                  0.429616        166.1534
5.45285                0.4284668        158.9468
5.4628                  0.427871        151.6669
5.47275                0.4278517        144.3193
5.4827                 0.4284217        136.9122
5.49265                0.4295842        129.4556
5.5026                 0.4313343        121.9614
5.51255                0.4336575        114.4422
5.5225                 0.4365282        106.9107
5.53245                0.4399077        99.37986
5.5424                 0.4437434        91.86193
5.55235                0.4479692         84.3691
5.5623                 0.4525087        76.91316
5.57225                0.4572794         69.5055
5.5822                 0.4621984        62.15696
5.59215                0.4671878        54.87733
5.6021                 0.4721785        47.67491
5.61205                0.4771125        40.55595
5.622                  0.4819419        33.52416
5.63195                0.4866257        26.58064
5.6419                 0.4911262        19.72386
5.65185                0.4954039        12.95018
5.6618                 0.4994149        6.254479
5.67175                0.5031107      -0.3691213
5.6817                   0.50644       -6.926582
5.69165                0.5093527       -13.42354
5.7016                 0.5118054       -19.86519
5.71155                0.5137653       -26.25656
5.7215                 0.5152121       -32.60283
5.73145                 0.516138       -38.90991
5.7414                 0.5165436       -45.18477
5.75135                0.5164336       -51.43551
5.7613                 0.5158109       -57.67132
5.77125                0.5146737       -63.90189
5.7812                 0.5130142        -70.1369
5.79115                0.5108205       -76.38546
5.8011                 0.5080815       -82.65573
5.81105                0.5047918       -88.95489
5.821                  0.5009571       -95.28934
5.83095                0.4965961       -101.6651
5.8409                 0.4917408       -108.0884
5.85085                0.4864336       -114.5664
5.8608                 0.4807228       -121.1066
5.87075                0.4746579       -127.7176
5.8807                  0.468286       -134.4081
5.89065                0.4616512       -141.1863
5.9006                 0.4547958       -148.0594
5.91055                0.4477643       -155.0328
5.9205                 0.4406074       -162.1098
5.93045                 0.433386       -169.2917
5.9404                 0.4261731       -176.5778
5.95035                0.4190524        176.0341