! TOUCHSTONE file generated by CST MICROWAVE STUDIO
! Date and time: Sat Jan  3 18:05:57 2026
! Project name: PCB_LOG_PERIODIC.cst
! Parameters = {bowtie_linear_scaling_factor=0.85; bowtie_spacing=200; cnd_off1=0.25; cnd_off2=0.5; cnd_off3=1.5; copper_thickness=0.035; dielectric_eps=4.6; dielectric_thickness=1.5; feed_cut_len=1.5; feed_line_length=205; feed_line_width=4; first_bowtie_length=60; first_bowtie_pos_offset=30; first_bowtie_start_offset=18; first_bowtie_width=5; first_bowtie_width_end=30; num_of_bowtie_peper_side=7; pcb_length=205; pcb_width_base=160; pcb_width_top=20}
! Header version: 2024
! Port assignment regex: !\s*Touchstone port\s*([0-9]+)\s*=\s*(CST MWS port|CST DES external port|CST DES block port)\s*(.+)\s* \(\"(.*)\"\)(\s*mode\s*([0-9]+))?.*
! Touchstone port assignment:
! Touchstone port 1 = CST MWS port 1 ("")
# GHz S MA R 50
0.05                    0.989845       -111.9368
0.05595                0.9883296       -123.4896
0.0619                 0.9871304       -134.6671
0.06785                0.9861829       -145.5041
0.0738                 0.9853406       -156.0361
0.07975                 0.984419       -166.2949
0.0857                 0.9832552       -176.3065
0.09165                0.9817653        173.9081
0.0976                 0.9799816        164.3307
0.10355                0.9780551        154.9422
0.1095                 0.9762224        145.7195
0.11545                0.9747411        136.6332
0.1214                 0.9738171         127.648
0.12735                0.9735405        118.7251
0.1333                 0.9738563        109.8261
0.13925                0.9745757         100.918
0.1452                 0.9754267        91.97643
0.15115                0.9761299        82.98659
0.1571                  0.976473        73.94254
0.16305                 0.976367        64.84358
0.169                  0.9758649        55.68986
0.17495                0.9751413        46.47796
0.1809                 0.9744358        37.19776
0.18685                0.9739818        27.83128
0.1928                 0.9739327        18.35387
0.19875                0.9743154         8.73741
0.2047                 0.9750169       -1.045625
0.21065                0.9758094       -11.01832
0.2166                 0.9764052        -21.1969
0.22255                0.9765237       -31.59035
0.2285                 0.9759523       -42.20189
0.23445                0.9745862       -53.03182
0.2404                 0.9724393       -64.08084
0.24635                0.9696243       -75.35303
0.2523                 0.9663133       -86.85742
0.25825                0.9626877       -98.60821
0.2642                 0.9588929        -110.623
0.27015                0.9550107       -122.9196
0.2761                 0.9510542       -135.5125
0.28205                0.9469846       -148.4083
0.288                  0.9427445       -161.6028
0.29395                0.9382957       -175.0788
0.2999                 0.9336496        171.1949
0.30585                 0.928885         157.263
0.3118                 0.9241468        143.1818
0.31775                0.9196289         129.017
0.3237                 0.9155451        114.8396
0.32965                0.9120966        100.7223
0.3356                 0.9094397        86.73527
0.34155                0.9076614        72.94222
0.3475                 0.9067637        59.39795
0.35345                0.9066603        46.14664
0.3594                 0.9071844        33.22197
0.36535                0.9081111        20.64828
0.3713                 0.9091907        8.442465
0.37725                0.9101941       -3.384202
0.3832                  0.910961       -14.82498
0.38915                 0.911443       -25.87784
0.3951                 0.9117286        -36.5471
0.40105                0.9120368       -46.84601
0.407                  0.9126749       -56.79945
0.41295                 0.913961       -66.44535
0.4189                 0.9161266       -75.83363
0.42485                0.9192272       -85.02204
0.4308                  0.923088       -94.06906
0.43675                0.9273093       -103.0263
0.4427                 0.9313356       -111.9318
0.44865                0.9345745       -120.8069
0.4546                 0.9365315       -129.6572
0.46055                 0.936928       -138.4776
0.4665                 0.9357673       -147.2597
0.47245                0.9333294       -156.0011
0.4784                 0.9300955       -164.7126
0.48435                0.9266152       -173.4238
0.4903                 0.9233514         177.817
0.49625                0.9205486        168.9466
0.5022                 0.9181611        159.8954
0.50815                0.9158658        150.5961
0.5141                 0.9131496        140.9913
0.52005                0.9094425        131.0367
0.526                  0.9042549           120.7
0.53195                0.8972809        109.9562
0.5379                 0.8884464        98.78174
0.54385                0.8779051        87.14964
0.5498                 0.8659903        75.02628
0.55575                0.8531502        62.37204
0.5617                  0.839888        49.14568
0.56765                  0.82672        35.31182
0.5736                  0.814154        20.85081
0.57955                0.8026733        5.769008
0.5855                 0.7927108        -9.89202
0.59145                0.7845949       -26.05035
0.5974                 0.7784753        -42.5839
0.60335                0.7742475       -59.33714
0.6093                 0.7715132       -76.13353
0.61525                0.7696101       -92.79068
0.6212                 0.7677217       -109.1345
0.62715                0.7650501       -125.0099
0.6331                 0.7610153        -140.287
0.63905                0.7554281       -154.8654
0.645                  0.7485951       -168.6788
0.65095                0.7413137        178.2984
0.6569                 0.7347429        166.0413
0.66285                0.7301504        154.4682
0.6688                  0.728587         143.442
0.67475                0.7305739        132.7863
0.6807                 0.7359124        122.3151
0.68665                0.7436878        111.8667
0.6926                 0.7524624        101.3284
0.69855                0.7605804        90.64555
0.7045                 0.7664834        79.81563
0.71045                0.7689559         68.8726
0.7164                 0.7672633        57.86958
0.72235                0.7611778        46.86273
0.7283                 0.7509076         35.8982
0.73425                0.7369541        25.00288
0.7402                 0.7199289        14.17888
0.74615                0.7003703        3.402838
0.7521                 0.6785964       -7.369917
0.75805                0.6546281       -18.19699
0.764                  0.6281982       -29.13845
0.76995                0.5988383       -40.24708
0.7759                 0.5660166       -51.56209
0.78185                0.5292863       -63.10776
0.7878                 0.4884123       -74.89687
0.79375                0.4434516       -86.93911
0.7997                 0.3947822       -99.25413
0.80565                0.3430854       -111.8927
0.8116                 0.2892992       -124.9744
0.81755                0.2345704        -138.768
0.8235                 0.1802596       -153.8937
0.82945                0.1281622       -171.9437
0.8354                0.08169655        162.2359
0.84135               0.05195153        114.5173
0.8473                0.06053491        54.59202
0.85325               0.09247775        21.15199
0.8592                 0.1275236        1.352178
0.86515                0.1603228       -13.44069
0.8711                 0.1893884       -25.89996
0.87705                0.2142334       -36.99724
0.883                  0.2347871       -47.14599
0.88895                0.2512379       -56.54343
0.8949                 0.2639666       -65.29659
0.90085                 0.273485       -73.47861
0.9068                 0.2803606       -81.15662
0.91275                0.2851265       -88.40415
0.9187                  0.288197       -95.30156
0.92465                0.2898134       -101.9274
0.9306                 0.2900399       -108.3451
0.93655                0.2888132       -114.5903
0.9425                 0.2860306       -120.6648
0.94845                0.2816465       -126.5383
0.9544                 0.2757457        -132.158
0.96035                0.2685704       -137.4643
0.9663                 0.2604933       -142.4076
0.97225                 0.251943        -146.963
0.9782                 0.2433091       -151.1364
0.98415                0.2348592       -154.9589
0.9901                 0.2267067       -158.4689
0.99605                0.2188438        -161.689
1.002                  0.2112298        -164.609
1.00795                0.2038954       -167.1837
1.0139                 0.1970164       -169.3511
1.01985                0.1909239       -171.0645
1.0258                 0.1860422       -172.3282
1.03175                 0.182777       -173.2191
1.0377                 0.1814096        -173.879
1.04365                0.1820533       -174.4791
1.0496                 0.1846938       -175.1797
1.05555                0.1892789       -176.1122
1.0615                  0.195782       -177.3893
1.06745                0.2041855       -179.1266
1.0734                 0.2143842        178.5523
1.07935                0.2260648        175.5355
1.0853                 0.2386377        171.7549
1.09125                0.2512644        167.2121
1.0972                 0.2629757        161.9829
1.10315                0.2728397        156.2044
1.1091                 0.2801327        150.0536
1.11505                0.2844734        143.7239
1.121                  0.2858969        137.4025
1.12695                0.2848457        131.2468
1.1329                 0.2820708        125.3593
1.13885                0.2784438        119.7669
1.1448                 0.2747168        114.4143
1.15075                0.2713009        109.1841
1.1567                 0.2681568        103.9449
1.16265                0.2648576        98.61096
1.1686                 0.2608101        93.18627
1.17455                0.2555525        87.77713
1.1805                 0.2490282         82.5701
1.18645                0.2417521        77.77909
1.1924                 0.2348059        73.56153
1.19835                0.2295995        69.91283
1.2043                 0.2273926        66.58665
1.21025                0.2287139        63.12566
1.2162                 0.2329933        59.03426
1.22215                0.2386557        53.98534
1.2281                 0.2435976        47.91775
1.23405                 0.245749        41.00649
1.24                   0.2435128        33.58805
1.24595                0.2360444        26.10993
1.2519                 0.2234319        19.12261
1.25785                0.2068403        13.29731
1.2638                 0.1886517        9.412297
1.26975                0.1725026        8.156815
1.2757                 0.1627709        9.533412
1.28165                0.1628389        12.14973
1.2876                 0.1728679        13.73554
1.29355                0.1897403        12.84005
1.2995                 0.2092545         9.41276
1.30545                0.2279133        4.109667
1.3114                  0.243459         -2.3262
1.31735                0.2548089       -9.280525
1.3233                 0.2618528       -16.29396
1.32925                0.2652209       -23.04844
1.3352                 0.2660144       -29.36012
1.34115                0.2654873       -35.17951
1.3471                 0.2647096       -40.58099
1.35305                 0.264294       -45.72369
1.359                   0.264285       -50.78425
1.36495                 0.264257       -55.88726
1.3709                 0.2635669       -61.06434
1.37685                0.2616467       -66.25375
1.3828                 0.2582243       -71.33035
1.38875                0.2534169       -76.14934
1.3947                 0.2476876       -80.59138
1.40065                0.2416867        -84.6001
1.4066                 0.2360296       -88.20043
1.41255                0.2310912       -91.48583
1.4185                 0.2269037       -94.57328
1.42445                0.2232111       -97.54518
1.4304                  0.219656       -100.4083
1.43635                0.2160111       -103.0906
1.4423                 0.2123519       -105.4766
1.44825                0.2091016       -107.4686
1.4542                 0.2069178       -109.0533
1.46015                0.2064499       -110.3422
1.4661                 0.2080617       -111.5533
1.47205                0.2116619       -112.9299
1.478                  0.2167444       -114.6428
1.48395                0.2226149       -116.7352
1.4899                 0.2286798       -119.1338
1.49585                0.2346711       -121.7049
1.5018                 0.2407331       -124.3236
1.50775                0.2473537       -126.9331
1.5137                 0.2551605        -129.576
1.51965                0.2646485       -132.3872
1.5256                 0.2759423       -135.5455
1.53155                 0.288693       -139.2078
1.5375                 0.3021411       -143.4606
1.54345                0.3152951       -148.3049
1.5494                 0.3271414       -153.6717
1.55535                0.3368158       -159.4489
1.5613                   0.34371       -165.5069
1.56725                0.3475107       -171.7169
1.5732                 0.3481867       -177.9621
1.57915                0.3459426        175.8574
1.5851                 0.3411553        169.8223
1.59105                0.3343096        163.9947
1.597                  0.3259415        158.4182
1.60295                0.3165935        153.1185
1.6089                 0.3067789        148.1031
1.61485                0.2969502        143.3588
1.6208                 0.2874656        138.8516
1.62675                0.2785553        134.5279
1.6327                 0.2702974        130.3221
1.63865                0.2626152        126.1691
1.6446                 0.2553086        122.0206
1.65055                0.2481172        117.8581
1.6565                 0.2408035        113.7007
1.66245                0.2332319        109.6021
1.6684                 0.2254232        105.6379
1.67435                0.2175658        101.8865
1.6803                 0.2099779        98.40468
1.68625                0.2030272        95.20689
1.6922                 0.1970278        92.25475
1.69815                0.1921509        89.46575
1.7041                 0.1883867         86.7412
1.71005                0.1855774        84.00123
1.716                  0.1835078        81.20956
1.72195                0.1820118        78.37509
1.7279                 0.1810485        75.53092
1.73385                 0.180714        72.70125
1.7398                 0.1811847        69.87211
1.74575                0.1826134        66.98094
1.7517                 0.1850243        63.93338
1.75765                0.1882572        60.64048
1.7636                 0.1919928          57.058
1.76955                0.1958495        53.20803
1.7755                  0.199514        49.17516
1.78145                 0.202861        45.08146
1.7874                 0.2060224        41.04865
1.79335                0.2093802        37.15641
1.7993                 0.2134739         33.4072
1.80525                0.2188317        29.71229
1.8112                 0.2257757        25.91202
1.81715                0.2342757        21.82795
1.8231                 0.2439147         17.3236
1.82905                0.2539775        12.34453
1.835                  0.2636179        6.925438
1.84095                0.2720405        1.172114
1.8469                  0.278653       -4.766248
1.85285                0.2831662       -10.72408
1.8588                 0.2856354       -16.54275
1.86475                0.2864421       -22.09122
1.8707                 0.2862186       -27.28514
1.87665                0.2857187        -32.1025
1.8826                 0.2856563        -36.5899
1.88855                0.2865449       -40.85301
1.8945                 0.2885867       -45.02922
1.90045                0.2916477        -49.2507
1.9064                 0.2953243       -53.61227
1.91235                0.2990674       -58.15554
1.9183                 0.3023181       -62.87064
1.92425                0.3046143       -67.70931
1.9302                 0.3056532        -72.6018
1.93615                0.3053097       -77.47143
1.9421                 0.3036218        -82.2454
1.94805                0.3007576       -86.86209
1.954                  0.2969743       -91.27469
1.95995                0.2925759       -95.45384
1.9659                 0.2878748       -99.38841
1.97185                0.2831574       -103.0852
1.9778                 0.2786539       -106.5672
1.98375                0.2745174       -109.8689
1.9897                 0.2708138       -113.0302
1.99565                 0.267529       -116.0878
2.0016                 0.2645939       -119.0682
2.00755                0.2619231       -121.9829
2.0135                 0.2594569       -124.8297
2.01945                0.2571929       -127.5982
2.0254                 0.2551961       -130.2794
2.03135                0.2535818       -132.8758
2.0373                 0.2524755       -135.4071
2.04325                0.2519634       -137.9106
2.0492                  0.252053       -140.4325
2.05515                 0.252662       -143.0161
2.0611                 0.2536408       -145.6899
2.06705                0.2548203       -148.4612
2.073                  0.2560661       -151.3191
2.07895                0.2573153       -154.2433
2.0849                 0.2585828       -157.2162
2.09085                0.2599327       -160.2333
2.0968                 0.2614268       -163.3061
2.10275                0.2630719       -166.4581
2.1087                 0.2647899       -169.7126
2.11465                0.2664283       -173.0799
2.1206                 0.2678097       -176.5471
2.12655                 0.268806        179.9225
2.1325                  0.269409        176.3806
2.13845                0.2697715        172.8779
2.1444                 0.2701967         169.443
2.15035                0.2710693        166.0645
2.1563                 0.2727403        162.6831
2.16225                0.2753989        159.2004
2.1682                 0.2789801        155.5042
2.17415                0.2831451        151.5013
2.1801                 0.2873457        147.1444
2.18605                0.2909488        142.4437
2.192                  0.2933785        137.4632
2.19795                0.2942414        132.3069
2.2039                 0.2934083        127.0996
2.20985                0.2910453        121.9667
2.2158                 0.2875895        117.0144
2.22175                0.2836732        112.3086
2.2277                 0.2800023        107.8589
2.23365                0.2772099        103.6105
2.2396                 0.2757176        99.45374
2.24555                0.2756456        95.25033
2.2515                 0.2768037        90.87005
2.25745                0.2787612         86.2221
2.2634                 0.2809675        81.27106
2.26935                0.2828775        76.03496
2.2753                 0.2840509        70.57217
2.28125                0.2842092        64.96426
2.2872                 0.2832522        59.30012
2.29315                0.2812429        53.66363
2.2991                 0.2783703         48.1244
2.30505                0.2749004        42.73241
2.311                  0.2711241        37.51507
2.31695                0.2673085        32.47808
2.3229                 0.2636603        27.60927
2.32885                0.2603055         22.8854
2.3348                 0.2572872        18.28032
2.34075                0.2545823        13.77265
2.3467                 0.2521288         9.35117
2.35265                0.2498591        5.016564
2.3586                 0.2477281       0.7795447
2.36455                0.2457328       -3.344073
2.3705                 0.2439155       -7.339788
2.37645                0.2423537       -11.20056
2.3824                 0.2411369       -14.93083
2.38835                0.2403389       -18.54695
2.3943                 0.2399949       -22.07361
2.40025                0.2400897       -25.53732
2.4062                 0.2405641       -28.95922
2.41215                0.2413365       -32.35014
2.4181                 0.2423321       -35.70967
2.42405                0.2435092       -39.02978
2.43                   0.2448718       -42.30146
2.43595                0.2464638       -45.52195
2.4419                 0.2483445       -48.69953
2.44785                0.2505555       -51.85377
2.4538                  0.253091       -55.01076
2.45975                0.2558842       -58.19491
2.4657                 0.2588174       -61.42087
2.47165                0.2617523       -64.68861
2.4776                 0.2645701       -67.98411
2.48355                 0.267204       -71.28501
2.4895                 0.2696531       -74.56928
2.49545                0.2719677       -77.82347
2.5014                  0.274213       -81.04714
2.50735                 0.276422       -84.25124
2.5133                   0.27856       -87.45006
2.51925                0.2805191       -90.64954
2.5252                 0.2821518        -93.8364
2.53115                0.2833396       -96.97277
2.5371                 0.2840769       -99.99987
2.54305                0.2845432       -102.8513
2.549                  0.2851349       -105.4751
2.55495                0.2864308       -107.8601
2.5609                 0.2890826       -110.0577
2.56685                0.2936461       -112.1872
2.5728                 0.3004056       -114.4151
2.57875                0.3092597       -116.9134
2.5847                 0.3197188       -119.8143
2.59065                0.3310126       -123.1819
2.5966                 0.3422568       -127.0087
2.60255                0.3526237        -131.232
2.6085                 0.3614695        -135.756
2.61445                0.3684055       -140.4745
2.6204                 0.3733121       -145.2873
2.62635                0.3763038       -150.1121
2.6323                 0.3776598       -154.8912
2.63825                0.3777381       -159.5939
2.6442                 0.3768909       -164.2133
2.65015                0.3754008       -168.7607
2.6561                 0.3734484       -173.2566
2.66205                0.3711158       -177.7217
2.668                  0.3684167         177.829
2.67395                0.3653388        173.3891
2.6799                 0.3618803        168.9595
2.68585                0.3580714        164.5448
2.6918                 0.3539749         160.149
2.69775                0.3496706        155.7722
2.7037                 0.3452335        151.4096
2.70965                0.3407156         147.053
2.7156                 0.3361375        142.6936
2.72155                0.3314946        138.3251
2.7275                 0.3267723        133.9456
2.73345                0.3219626         129.558
2.7394                 0.3170784        125.1685
2.74535                0.3121557        120.7833
2.7513                  0.307247         116.407
2.75725                0.3024086        112.0405
2.7632                 0.2976872        107.6816
2.76915                0.2931107        103.3265
2.7751                 0.2886888        98.97259
2.78105                0.2844203        94.62004
2.787                   0.280305        90.27293
2.79295                0.2763547        85.93816
2.7989                  0.272598        81.62353
2.80485                0.2690783        77.33521
2.8108                 0.2658445        73.07582
2.81675                  0.26294        68.84411
2.8227                 0.2603933        64.63604
2.82865                0.2582148        60.44687
2.8346                    0.2564        56.27342
2.84055                 0.254939        52.11531
2.8465                 0.2538256        47.97464
2.85245                0.2530641        43.85431
2.8584                 0.2526688         39.7557
2.86435                0.2526576        35.67695
2.8703                 0.2530412        31.61245
2.87625                0.2538141        27.55414
2.8822                 0.2549492        23.49404
2.88815                 0.256401        19.42687
2.8941                 0.2581152        15.35178
2.90005                0.2600403        11.27233
2.906                  0.2621383        7.194815
2.91195                0.2643879         3.12561
2.9179                 0.2667813      -0.9313331
2.92385                0.2693134        -4.97578
2.9298                 0.2719702       -9.010801
2.93575                0.2747195       -13.04079
2.9417                 0.2775097       -17.06883
2.94765                0.2802757       -21.09442
2.9536                 0.2829515       -25.11277
2.95955                0.2854819       -29.11566
2.9655                 0.2878301       -33.09368
2.97145                0.2899758       -37.03865
2.9774                 0.2919052       -40.94513
2.98335                0.2935972       -44.80991
2.9893                 0.2950123       -48.62959
2.99525                0.2960929       -52.39649
3.0012                 0.2967773       -56.09492
3.00715                 0.297029       -59.69906
3.0131                 0.2968729       -63.17431
3.01905                0.2964274       -66.48283
3.025                  0.2959204       -69.59265
3.03095                0.2956785       -72.48946
3.0369                  0.296083       -75.18728
3.04285                0.2974983       -77.73413
3.0488                   0.30019       -80.20867
3.05475                0.3042563       -82.70677
3.0607                 0.3095978       -85.32173
3.06665                0.3159368       -88.12545
3.0726                 0.3228773       -91.15692
3.07855                0.3299843       -94.42084
3.0845                 0.3368589        -97.8943
3.09045                0.3431912       -101.5374
3.0964                 0.3487837       -105.3043
3.10235                 0.353548       -109.1517
3.1083                 0.3574813       -113.0444
3.11425                0.3606341       -116.9576
3.1202                 0.3630781       -120.8756
3.12615                0.3648829       -124.7901
3.1321                 0.3661046       -128.6967
3.13805                0.3667858       -132.5926
3.144                  0.3669635       -136.4746
3.14995                0.3666773       -140.3393
3.1559                 0.3659756       -144.1836
3.16185                0.3649156       -148.0058
3.1678                  0.363558       -151.8065
3.17375                0.3619601       -155.5885
3.1797                 0.3601693       -159.3564
3.18565                0.3582201       -163.1158
3.1916                 0.3561361       -166.8719
3.19755                0.3539344       -170.6294
3.2035                 0.3516303       -174.3921
3.20945                0.3492406       -178.1635
3.2154                 0.3467825        178.0524
3.22135                0.3442714         174.251
3.2273                 0.3417159         170.427
3.23325                0.3391159        166.5756
3.2392                  0.336463        162.6927
3.24515                0.3337452        158.7764
3.2511                 0.3309525        154.8268
3.25705                0.3280837        150.8457
3.263                  0.3251493         146.836
3.26895                0.3221715        142.8001
3.2749                 0.3191795        138.7392
3.28085                0.3162035         134.653
3.2868                 0.3132687        130.5401
3.29275                0.3103922        126.3984
3.2987                 0.3075838        122.2271
3.30465                0.3048492        118.0264
3.3106                 0.3021964        113.7988
3.31655                0.2996401        109.5478
3.3225                 0.2972032        105.2771
3.32845                0.2949152        100.9899
3.3344                 0.2928076         96.6878
3.34035                0.2909074        92.37083
3.3463                  0.289233        88.03828
3.35225                0.2877924        83.68965
3.3582                  0.286585        79.32574
3.36415                0.2856069        74.94931
3.3701                 0.2848562        70.56493
3.37605                0.2843375        66.17823
3.382                  0.2840624        61.79464
3.38795                0.2840478        57.41829
3.3939                 0.2843097        53.05146
3.39985                0.2848583        48.69465
3.4058                 0.2856933        44.34747
3.41175                0.2868036        40.00981
3.4177                 0.2881703        35.68278
3.42365                0.2897715        31.36919
3.4296                  0.291589        27.07322
3.43555                0.2936117        22.79943
3.4415                 0.2958363        18.55155
3.44745                0.2982641        14.33153
3.4534                 0.3008955        10.13915
3.45935                0.3037241         5.97247
3.4653                  0.306733        1.828766
3.47125                 0.309895       -2.294227
3.4772                 0.3131763       -6.397424
3.48315                 0.316542       -10.48011
3.4891                 0.3199626       -14.54039
3.49505                0.3234172       -18.57617
3.501                  0.3268931       -22.58622
3.50695                0.3303818       -26.57101
3.5129                 0.3338731       -30.53276
3.51885                0.3373484       -34.47494
3.5248                 0.3407784       -38.40121
3.53075                0.3441231       -42.31429
3.5367                 0.3473364       -46.21517
3.54265                0.3503728       -50.10298
3.5486                 0.3531929       -53.97539
3.55455                0.3557664       -57.82953
3.5605                 0.3580711       -61.66285
3.56645                 0.360089       -65.47363
3.5724                 0.3618006       -69.26083
3.57835                0.3631806       -73.02347