! TOUCHSTONE file generated by CST MICROWAVE STUDIO
! Date and time: Sat Jan  3 18:24:45 2026
! Project name: PCB_LOG_PERIODIC.cst
! Parameters = {bowtie_linear_scaling_factor=0.85; bowtie_spacing=200; cnd_off1=0.25; cnd_off2=0.5; cnd_off3=1.5; copper_thickness=0.035; dielectric_eps=4.6; dielectric_thickness=1.5; feed_cut_len=1.5; feed_line_length=205; feed_line_width=4; first_bowtie_length=60; first_bowtie_pos_offset=30; first_bowtie_start_offset=18; first_bowtie_width=5; first_bowtie_width_end=30; num_of_bowtie_peper_side=7; pcb_length=205; pcb_width_base=160; pcb_width_top=20}
! Header version: 2024
! Port assignment regex: !\s*Touchstone port\s*([0-9]+)\s*=\s*(CST MWS port|CST DES external port|CST DES block port)\s*(.+)\s* \(\"(.*)\"\)(\s*mode\s*([0-9]+))?.*
! Touchstone port assignment:
! Touchstone port 1 = CST MWS port 1 ("")
# GHz S MA R 50
0.05                   0.9907304         -115.46
0.05595                 0.988881       -127.7034
0.0619                  0.987148       -139.5763
0.06785                0.9855911       -151.0917
0.0738                 0.9842342       -162.2676
0.07975                0.9830658       -173.1251
0.0857                 0.9820491        176.3136
0.09165                0.9811366        166.0267
0.0976                 0.9802872        155.9934
0.10355                0.9794798        146.1933
0.1095                 0.9787199        136.6067
0.11545                 0.978039        127.2131
0.1214                  0.977486        117.9911
0.12735                0.9771131        108.9176
0.1333                 0.9769627        99.96808
0.13925                0.9770546        91.11677
0.1452                 0.9773779        82.33712
0.15115                0.9778892        73.60257
0.1571                 0.9785155        64.88705
0.16305                0.9791632        56.16545
0.169                  0.9797296        47.41376
0.17495                0.9801194        38.60891
0.1809                 0.9802598        29.72814
0.18685                0.9801152        20.74801
0.1928                 0.9796945        11.64292
0.19875                0.9790502        2.383362
0.2047                 0.9782642       -7.065774
0.21065                0.9774207       -16.74642
0.2166                 0.9765706       -26.70763
0.22255                0.9756974       -37.00452
0.2285                 0.9746925       -47.69582
0.23445                0.9733537        -58.8402
0.2404                 0.9714121       -70.49188
0.24635                0.9685861       -82.69606
0.2523                  0.964653       -95.48499
0.25825                0.9595225       -108.8737
0.2642                 0.9532927       -122.8571
0.27015                0.9462699       -137.4064
0.2761                 0.9389427       -152.4666
0.28205                0.9319064       -167.9546
0.288                  0.9257534        176.2399
0.29395                0.9209521        160.2508
0.2999                 0.9177489        144.2273
0.30585                0.9161227        128.3234
0.3118                 0.9158092        112.6855
0.31775                0.9163861        97.44189
0.3237                 0.9173935         82.6953
0.32965                0.9184531        68.51847
0.3356                 0.9193509        54.95318
0.34155                0.9200644        42.01103
0.3475                 0.9207281          29.676
0.35345                0.9215557        17.90849
0.3594                 0.9227406          6.6513
0.36535                0.9243726       -4.162831
0.3713                 0.9263935       -14.60276
0.37725                0.9286084       -24.73134
0.3832                 0.9307452        -34.6002
0.38915                0.9325406       -44.24805
0.3951                 0.9338228       -53.70256
0.40105                0.9345647       -62.98498
0.407                  0.9348879       -72.11555
0.41295                0.9350194       -81.11886
0.4189                 0.9352116       -90.02655
0.42485                0.9356524       -98.87721
0.4308                  0.936392       -107.7136
0.43675                0.9373125       -116.5771
0.4427                 0.9381483       -125.5034
0.44865                0.9385517        -134.518
0.4546                 0.9381826       -143.6362
0.46055                0.9367945       -152.8647
0.4665                  0.934295       -162.2062
0.47245                0.9307619       -171.6651
0.4784                 0.9264146        178.7472
0.48435                0.9215461        169.0079
0.4903                 0.9164357        159.0815
0.49625                0.9112643        148.9204
0.5022                 0.9060562        138.4687
0.50815                0.9006615        127.6669
0.5141                 0.8947852        116.4575
0.52005                0.8880519        104.7885
0.526                  0.8800933        92.61627
0.53195                0.8706388        79.90617
0.5379                   0.85959        66.63266
0.54385                0.8470726        52.77927
0.5498                  0.833456         38.3399
0.55575                0.8193391         23.3217
0.5617                 0.8055002        7.749769
0.56765                0.7928126       -8.327031
0.5736                  0.782129       -24.83074
0.57955                0.7741468       -41.65206
0.5855                 0.7692783       -58.65308
0.59145                0.7675557       -75.67624
0.5974                 0.7686025       -92.55746
0.60335                0.7716844       -109.1403
0.6093                 0.7758375       -125.2872
0.61525                0.7800429       -140.8848
0.6212                 0.7834138       -155.8459
0.62715                 0.785358        -170.108
0.6331                 0.7856875        176.3674
0.63905                0.7846522        163.5929
0.645                  0.7828846         151.552
0.65095                0.7812551        140.1936
0.6569                 0.7806563        129.4305
0.66285                0.7817558        119.1436
0.6688                 0.7847891         109.195
0.67475                0.7894536        99.44726
0.6807                 0.7949428        89.78386
0.68665                 0.800108        80.12277
0.6926                 0.8036916        70.42071
0.69855                0.8045621        60.66788
0.7045                 0.8018903         50.8767
0.71045                0.7952323        41.06805
0.7164                   0.78451        31.25812
0.72235                0.7699037        21.44786
0.7283                 0.7516851        11.61651
0.73425                  0.73004        1.720309
0.7402                 0.7049292       -8.303192
0.74615                0.6760305       -18.52667
0.7521                 0.6427826       -29.02295
0.75805                0.6045219       -39.85687
0.764                  0.5606716       -51.08205
0.76995                0.5109392       -62.74475
0.7759                 0.4554742       -74.89645
0.78185                0.3949639       -87.62005
0.7878                 0.3306626       -101.0824
0.79375                0.2643854       -115.6535
0.7997                 0.1985646       -132.2227
0.80565                0.1367391         -153.19
0.8116                 0.0861769        174.2657
0.81755               0.06644978        119.4129
0.8235                0.08869744        71.32833
0.82945                0.1256332        44.68137
0.8354                 0.1622792        27.30218
0.84135                0.1951923         13.8945
0.8473                 0.2239308        2.554395
0.85325                 0.248866       -7.574456
0.8592                 0.2704627       -16.97587
0.86515                0.2889562       -25.96245
0.8711                  0.304244       -34.73436
0.87705                0.3159419       -43.39665
0.883                  0.3235508       -51.96988
0.88895                0.3266652       -60.40391
0.8949                 0.3251616       -68.59503
0.90085                0.3193243       -76.40507
0.9068                 0.3098854       -83.68338
0.91275                0.2979664       -90.29392
0.9187                 0.2849208       -96.14901
0.92465                 0.272092       -101.2441
0.9306                 0.2605343       -105.6774
0.93655                0.2507867       -109.6329
0.9425                  0.242809       -113.3197
0.94845                0.2361278       -116.8936
0.9544                 0.2301349       -120.4046
0.96035                0.2243983       -123.7956
0.9663                 0.2188651       -126.9483
0.97225                0.2138915       -129.7541
0.9782                 0.2101006       -132.1868
0.98415                0.2081165       -134.3449
0.9901                 0.2082825       -136.4353
0.99605                0.2105008       -138.6945
1.002                  0.2142828       -141.2924
1.00795                 0.218973       -144.2791
1.0139                 0.2240188       -147.5958
1.01985                0.2291629       -151.1293
1.0258                 0.2344946        -154.777
1.03175                0.2403578       -158.4968
1.0377                 0.2471539       -162.3276
1.04365                 0.255117       -166.3724
1.0496                  0.264155       -170.7515
1.05555                0.2738245       -175.5502
1.0615                 0.2834418        179.2147
1.06745                0.2922717        173.5975
1.0734                  0.299719        167.7046
1.07935                0.3054625        161.6642
1.0853                 0.3095025        155.5963
1.09125                0.3121121        149.5875
1.0972                 0.3137085        143.6743
1.10315                0.3146766        137.8416
1.1091                 0.3152013        132.0366
1.11505                0.3151743        126.1996
1.121                  0.3142147        120.2976
1.12695                0.3118069        114.3528
1.1329                 0.3075087        108.4527
1.13885                0.3011709        102.7446
1.1448                 0.2931046        97.41009
1.15075                0.2841445        92.62243
1.1567                 0.2755579        88.48194
1.16265                0.2687585        84.94327
1.1686                 0.2648509        81.77314
1.17455                0.2641575        78.59399
1.1805                  0.265985        75.01997
1.18645                0.2687881        70.80642
1.1924                 0.2706343        65.92243
1.19835                0.2697294        60.53573
1.2043                 0.2648354        54.96227
1.21025                0.2555447        49.62473
1.2162                 0.2424489        45.02819
1.22215                0.2272316        41.72385
1.2281                 0.2126398        40.19266
1.23405                0.2021314        40.56558
1.24                   0.1988884        42.25902
1.24595                0.2043481        43.99141
1.2519                 0.2174278        44.48746
1.25785                0.2353038         43.1653
1.2638                 0.2548526        40.12893
1.26975                0.2735814        35.79638
1.2757                 0.2899019        30.62059
1.28165                0.3030616        24.97597
1.2876                 0.3129517        19.13322
1.29355                0.3198777        13.26557
1.2995                 0.3243291        7.464831
1.30545                 0.326782         1.76271
1.3114                  0.327568        -3.84355
1.31735                0.3268346       -9.364639
1.3233                 0.3245935       -14.79748
1.32925                0.3208272       -20.11379
1.3352                 0.3156056       -25.26125
1.34115                0.3091648       -30.17603
1.3471                 0.3019173       -34.80261
1.35305                0.2943843       -39.11486
1.359                  0.2870692       -43.13022
1.36495                0.2803166        -46.9086
1.3709                 0.2742175       -50.53208
1.37685                0.2686078        -54.0715
1.3828                 0.2631725       -57.55421
1.38875                0.2576162       -60.94827
1.3947                 0.2518345       -64.17035
1.40065                0.2460233       -67.11622
1.4066                 0.2406801       -69.70684
1.41255                0.2364826       -71.93736
1.4185                  0.234066       -73.90742
1.42445                 0.233777       -75.80795
1.4304                 0.2355186       -77.85881
1.43635                0.2387747       -80.22707
1.4423                 0.2428054       -82.97241
1.44825                0.2469171       -86.04354
1.4542                 0.2506961       -89.31567
1.46015                0.2541365       -92.64662
1.4661                 0.2576312       -95.93329
1.47205                0.2618302       -99.15626
1.478                  0.2673955       -102.3979
1.48395                0.2747265       -105.8212
1.4899                 0.2837629       -109.6134
1.49585                0.2939473       -113.9198
1.5018                 0.3043518       -118.8006
1.50775                0.3139003       -124.2237
1.5137                 0.3215994       -130.0842
1.51965                0.3267188       -136.2322
1.5256                 0.3289002          -142.5
1.53155                0.3281928        -148.723
1.5375                 0.3250232       -154.7574
1.54345                0.3201065       -160.4973
1.5494                  0.314308       -165.8893
1.55535                0.3084733       -170.9427
1.5613                 0.3032585       -175.7274
1.56725                0.2990046        179.6442
1.5732                 0.2956965         175.049
1.57915                0.2930199        170.3889
1.5851                 0.2904923         165.614
1.59105                0.2876175          160.73
1.597                  0.2840176        155.7892
1.60295                0.2795134        150.8732
1.6089                 0.2741451        146.0727
1.61485                0.2681438        141.4687
1.6208                 0.2618649        137.1176
1.62675                0.2557017        133.0413
1.6327                 0.2499997        129.2255
1.63865                0.2449895        125.6263
1.6446                 0.2407579        122.1859
1.65055                0.2372613        118.8504
1.6565                 0.2343755        115.5847
1.66245                0.2319636        112.3796
1.6684                 0.2299393        109.2479
1.67435                0.2283072         106.213
1.6803                 0.2271711        103.2929
1.68625                 0.226706        100.4849
1.6922                 0.2271021        97.75541
1.69815                0.2284931        95.04094
1.7041                  0.230893        92.25975
1.71005                0.2341611        89.33287
1.716                  0.2380101        86.20626
1.72195                0.2420574        82.86649
1.7279                 0.2459059        79.34593
1.73385                0.2492357        75.71752
1.7398                 0.2518883        72.08148
1.74575                0.2539283        68.54678
1.7517                 0.2556682        65.20782
1.75765                0.2576429        62.11847
1.7636                 0.2605237        59.26792
1.76955                0.2649744        56.56799
1.7755                 0.2714784        53.86299
1.78145                 0.280191        50.96526
1.7874                 0.2908734        47.70437
1.79335                0.3029321        43.96774
1.7993                 0.3155404        39.71753
1.80525                0.3277917         34.9842
1.8112                 0.3388419         29.8469
1.81715                0.3480135        24.41202
1.8231                 0.3548591        18.79541
1.82905                0.3591838        13.10952
1.835                   0.361034        7.454618
1.84095                0.3606588        1.912692
1.8469                 0.3584496       -3.456757
1.85285                0.3548679       -8.618935
1.8588                 0.3503717       -13.56347
1.86475                0.3453519         -18.301
1.8707                 0.3400901       -22.85663
1.87665                0.3347462       -27.26134
1.8826                 0.3293746       -31.54327
1.88855                0.3239611       -35.72126
1.8945                 0.3184694       -39.80214
1.90045                0.3128813       -43.78187
1.9064                 0.3072229        -47.6501
1.91235                 0.301569       -51.39611
1.9183                 0.2960302       -55.01453
1.92425                0.2907259       -58.50897
1.9302                  0.285755       -61.89264
1.93615                0.2811737       -65.18523
1.9421                 0.2769881        -68.4078
1.94805                0.2731636       -71.57668
1.954                  0.2696492       -74.69952
1.95995                0.2664081       -77.77447
1.9659                 0.2634436       -80.79358
1.97185                0.2608099       -83.74895
1.9778                 0.2586056       -86.64068
1.98375                0.2569458       -89.48237
1.9897                 0.2559248       -92.30343
1.99565                0.2555783       -95.14468
2.0016                 0.2558612       -98.04959
2.00755                0.2566502       -101.0532
2.0135                 0.2577728       -104.1734
2.01945                0.2590531       -107.4073
2.0254                 0.2603599       -110.7347
2.03135                0.2616404       -114.1273
2.0373                 0.2629276       -117.5595
2.04325                0.2643158       -121.0198
2.0492                   0.26591       -124.5159
2.05515                0.2677649       -128.0731
2.0611                 0.2698335       -131.7235
2.06705                0.2719504       -135.4914
2.073                  0.2738591       -139.3766
2.07895                0.2752834       -143.3452
2.0849                 0.2760249       -147.3277
2.09085                 0.276065       -151.2283
2.0968                  0.275642       -154.9436
2.10275                0.2752781       -158.3915
2.1087                 0.2757303       -161.5454
2.11465                  0.27785       -164.4638
2.1206                 0.2823678       -167.2995
2.12655                0.2896647       -170.2716
2.1325                 0.2996218       -173.6058
2.13845                0.3116174        -177.471
2.1444                 0.3246642         178.058
2.15035                0.3376201        173.0009
2.1563                 0.3493974        167.4489
2.16225                0.3591233        161.5347
2.1682                 0.3662399         155.407
2.17415                0.3705449        149.2115
2.1801                 0.3721785        143.0773
2.18605                0.3715663        137.1059
2.192                  0.3693215        131.3638
2.19795                0.3661223        125.8762
2.2039                 0.3625817        120.6289
2.20985                  0.35914        115.5756
2.2158                 0.3560054        110.6544
2.22175                0.3531589        105.8062
2.2277                 0.3504197         100.991
2.23365                0.3475436        96.19623
2.2396                 0.3443238        91.43548
2.24555                 0.340661         86.7398
2.2515                 0.3365896        82.14486
2.25745                0.3322565        77.67855
2.2634                 0.3278653        73.35211
2.26935                 0.323606        69.15734
2.2753                 0.3195954         65.0712
2.28125                0.3158476        61.06521
2.2872                 0.3122839        57.11711
2.29315                0.3087768        53.21931
2.2991                 0.3052099        49.38165
2.30505                  0.30153        45.62748
2.311                  0.2977754        41.98466
2.31695                0.2940693        38.47526
2.3229                 0.2905831        35.10629
2.32885                 0.287482        31.86648
2.3348                 0.2848742        28.72928
2.34075                0.2827825         25.6617
2.3467                 0.2811487        22.63554
2.35265                0.2798688        19.63599
2.3586                 0.2788448        16.66431
2.36455                  0.27803        13.73355
2.3705                 0.2774524        10.85938
2.37645                0.2772063        8.049816
2.3824                 0.2774152        5.297908
2.38835                0.2781821        2.580705
2.3943                 0.2795455      -0.1347687
2.40025                0.2814611        -2.88078
2.4062                 0.2838187       -5.677994
2.41215                0.2864868       -8.529146
2.4181                 0.2893714          -11.42
2.42405                 0.292464       -14.32735
2.43                   0.2958634       -17.23144
2.43595                 0.299758       -20.12866
2.4419                 0.3043725       -23.04022
2.44785                 0.309891       -26.01295
2.4538                 0.3163798       -29.11102
2.45975                0.3237356       -32.40087
2.4657                 0.3316772       -35.93468
2.47165                0.3397796       -39.73783
2.4776                 0.3475432       -43.80372
2.48355                0.3544746       -48.09555
2.4895                 0.3601631       -52.55295
2.49545                 0.364342       -57.10052
2.5014                 0.3669256       -61.65692
2.50735                0.3680239        -66.1436
2.5133                 0.3679316       -70.49327
2.51925                0.3670944       -74.65832
2.5252                 0.3660518       -78.61833
2.53115                0.3653622       -82.38538
2.5371                 0.3655166       -86.00484
2.54305                0.3668585       -89.54928
2.549                  0.3695265       -93.10592
2.55495                0.3734356       -96.76006
2.5609                 0.3783036       -100.5793
2.56685                0.3837133       -104.6033
2.5728                 0.3891944       -108.8407
2.57875                0.3943046        -113.273
2.5847                 0.3986946       -117.8619
2.59065                0.4021478       -122.5593
2.5966                 0.4045917       -127.3154
2.60255                0.4060842        -132.087
2.6085                  0.406778        -136.842
2.61445                0.4068736       -141.5622
2.6204                 0.4065707       -146.2432
2.62635                0.4060272       -150.8906
2.6323                 0.4053371       -155.5158
2.63825                0.4045288       -160.1303
2.6442                 0.4035825       -164.7413
2.65015                0.4024584       -169.3496
2.6561                 0.4011268         -173.95
2.66205                0.3995895       -178.5334
2.668                  0.3978867        176.9094
2.67395                0.3960895        172.3848
2.6799                 0.3942809        167.8941
2.68585                 0.392534        163.4333
2.6918                 0.3908941        158.9946
2.69775                0.3893706        154.5695
2.7037                 0.3879429        150.1515
2.70965                0.3865746        145.7378
2.7156                 0.3852315        141.3298
2.72155                0.3838966        136.9317
2.7275                  0.382576        132.5479
2.73345                0.3812942        128.1814
2.7394                 0.3800812        123.8315
2.74535                0.3789572        119.4947
2.7513                 0.3779208        115.1655
2.75725                 0.376945         110.839
2.7632                 0.3759849        106.5131
2.76915                0.3749914        102.1901
2.7751                  0.373928        97.87547
2.78105                0.3727835        93.57723
2.787                  0.3715751        89.30264
2.79295                0.3703417        85.05605
2.7989                 0.3691294         80.8374
2.80485                0.3679744        76.64227
2.8108                 0.3668897        72.46356
2.81675                 0.365861        68.29384
2.8227                 0.3648533        64.12783
2.82865                 0.363824        59.96355
2.8346                 0.3627385        55.80201
2.84055                0.3615803        51.64543
2.8465                 0.3603519        47.49475
2.85245                0.3590648        43.34747
2.8584                 0.3577231        39.19687
2.86435                0.3563062        35.03292
2.8703                  0.354759        30.84474
2.87625                0.3529919        26.62362
2.8822                 0.3508935        22.36536
2.88815                0.3483471        18.07108
2.8941                 0.3452463        13.74608
2.90005                0.3415001        9.397558
2.906                  0.3370256        5.032181
2.91195                0.3317276       0.6553611
2.9179                 0.3254764       -3.726576
2.92385                0.3180937       -8.100584
2.9298                 0.3093595       -12.43774
2.93575                0.2990483       -16.68185
2.9417                 0.2869958       -20.73717
2.94765                 0.273192       -24.45696
2.9536                 0.2578903       -27.63507
2.95955                0.2417216       -30.00687
2.9655                 0.2257915       -31.27455
2.97145                0.2117107       -31.18531
2.9774                  0.201457       -29.69003
2.98335                0.1969374        -27.1379
2.9893                 0.1992896       -24.31312
2.99525                0.2083436        -22.1378
3.0012                 0.2227247        -21.2448
3.00715                0.2404855       -21.81036
3.0131                 0.2597351       -23.68148
3.01905                 0.278978       -26.57107
3.025                  0.2972021       -30.18464
3.03095                0.3138405       -34.27439
3.0369                 0.3286818       -38.65295
3.04285                0.3417641       -43.19046
3.0488                 0.3532698       -47.80548
3.05475                0.3634322       -52.45367
3.0607                 0.3724653       -57.11599
3.06665                0.3805252       -61.78726
3.0726                 0.3877034       -66.46704
3.07855                0.3940439       -71.15345
3.0845                 0.3995731       -75.84093
3.09045                0.4043284       -80.52081
3.0964                 0.4083743       -85.18416
3.10235                0.4118025       -89.82454
3.1083                 0.4147183       -94.44026
3.11425                0.4172188       -99.03464
3.1202                 0.4193745       -103.6145
3.12615                0.4212194       -108.1876
3.1321                 0.4227541       -112.7599
3.13805                0.4239607       -117.3334
3.144                  0.4248224        -121.906
3.14995                0.4253406       -126.4725
3.1559                 0.4255442       -131.0272
3.16185                0.4254872       -135.5656
3.1678                 0.4252356       -140.0867
3.17375                0.4248512       -144.5931
3.1797                 0.4243755       -149.0902
3.18565                0.4238217       -153.5839
3.1916                 0.4231773       -158.0787
3.19755                0.4224153        -162.576
3.2035                   0.42151       -167.0733
3.20945                0.4204517       -171.5656
3.2154                 0.4192546        -176.047
3.22135                0.4179551        179.4875
3.2273                 0.4166019        175.0401
3.23325                0.4152416        170.6096
3.2392                  0.413905        166.1924
3.24515                0.4125995        161.7843
3.2511                   0.41131        157.3817
3.25705                0.4100085        152.9843
3.263                  0.4086669        148.5945
3.26895                 0.407271        144.2176
3.2749                 0.4058275        139.8597
3.28085                0.4043634         135.526
3.2868                 0.4029185         131.219
3.29275                0.4015317        126.9384
3.2987                 0.4002286        122.6812
3.30465                0.3990143        118.4432
3.3106                 0.3978728        114.2212
3.31655                0.3967751        110.0143
3.3225                 0.3956916        105.8245
3.32845                0.3946043        101.6564
3.3344                 0.3935141        97.51539
3.34035                0.3924418        93.40626
3.3463                 0.3914203        89.33123
3.35225                0.3904829        85.28954
3.3582                 0.3896518        81.27795
3.36415                0.3889301        77.29201
3.3701                  0.388302        73.32814
3.37605                0.3877397        69.38491
3.382                  0.3872153        65.46382
3.38795                 0.386713        61.56872
3.3939                 0.3862368        57.70437
3.39985                0.3858108        53.87453
3.4058                 0.3854722        50.08042
3.41175                0.3852606        46.31998
3.4177                 0.3852046         42.5883
3.42365                0.3853149          38.879
3.4296                 0.3855829        35.18602
3.43555                0.3859864        31.50513
3.4415                 0.3865006        27.83453
3.44745                0.3871087        24.17446
3.4534                 0.3878086        20.52584
3.45935                0.3886127        16.88868
3.4653                 0.3895412        13.26082
3.47125                0.3906115        9.637484
3.4772                 0.3918276        6.011986
3.48315                 0.393174        2.377133
3.4891                 0.3946169        -1.27308
3.49505                0.3961106       -4.942223
3.501                  0.3976092       -8.631074
3.50695                0.3990768       -12.33826
3.5129                 0.4004926       -16.06165
3.51885                0.4018505       -19.79988
3.5248                 0.4031521       -23.55347
3.53075                0.4043954       -27.32515
3.5367                 0.4055656       -31.11917
3.54265                0.4066289       -34.93995
3.5486                 0.4075333       -38.79055
3.55455                0.4082157       -42.67152
3.5605                 0.4086107       -46.58046
3.56645                0.4086605       -50.51237
3.5724                 0.4083196        -54.4605
3.57835                0.4075559       -58.41728